# vtk DataFile Version 5.1
written by meshio v5.0.0
ASCII
DATASET UNSTRUCTURED_GRID
POINTS 933 double
196.140091 12.0480433 0.0 190.166183 20.0691891 0.0 181.161499 32.0681343 0.0 175.116531 40.0358543 0.0 165.964951 51.9230843 0.0 156.687302 63.7121544 0.0 150.41861 71.505043 0.0 140.87059 83.0761337 0.0 131.158127 94.5096512 0.0 124.641747 102.096695 0.0 114.893982 113.500183 0.0 105.286087 125.021561 0.0 95.9437866 136.758926 0.0 87.0005722 148.802597 0.0 81.3301926 157.040604 0.0 75.944519 165.467346 0.0 70.889183 174.096115 0.0 66.2674484 182.963821 0.0 62.2925987 192.138168 0.0 59.2157936 201.649399 0.0 57.0569572 211.412552 0.0 205.078995 0.0 0.0 55.382 221.272354 0.0 41.5369987 221.399994 0.0 41.4423485 211.487167 0.0 41.328125 201.574539 0.0 41.1747131 191.662445 0.0 40.8278885 176.796631 0.0 40.4897957 166.889145 0.0 40.0426941 156.986008 0.0 39.466217 147.089584 0.0 38.7398376 137.203049 0.0 37.842926 127.330551 0.0 36.7548637 117.477333 0.0 34.7197227 102.748077 0.0 33.0651932 92.9741058 0.0 31.1501484 83.2478714 0.0 27.7502365 68.7731476 0.0 25.1043606 59.2199516 0.0 20.5088806 45.0799408 0.0 16.9925156 35.8119926 0.0 11.0304823 22.1916542 0.0 6.71798229 13.2657652 0.0 0.0 0.0 0.0 10.0038538 0.0 0.0 20.0077076 0.0 0.0 30.0115604 0.0 0.0 40.0154152 0.0 0.0 50.019268 0.0 0.0 60.0231209 0.0 0.0 70.0269775 0.0 0.0 80.0308304 0.0 0.0 90.0346832 0.0 0.0 100.038536 0.0 0.0 115.044319 0.0 0.0 125.048172 0.0 0.0 135.052017 0.0 0.0 145.055878 0.0 0.0 155.059738 0.0 0.0 165.063583 0.0 0.0 175.067444 0.0 0.0 185.071289 0.0 0.0 195.07515 0.0 0.0 51.1386566 212.405136 0.0 185.080597 10.2137442 0.0 174.442535 9.93269444 0.0 164.146835 10.0732832 0.0 155.323013 9.64412022 0.0 143.49353 9.65652943 0.0 133.175537 9.94984436 0.0 123.652122 10.2859945 0.0 111.476372 10.1565266 0.0 102.547798 9.87519932 0.0 93.5990143 10.1460152 0.0 81.4535904 10.3335037 0.0 71.8651581 10.0549469 0.0 61.5376663 9.77749348 0.0 50.5854645 10.30581 0.0 40.0376282 10.1426764 0.0 30.0159206 9.4469862 0.0 21.0214539 9.7844677 0.0 9.67188549 9.0668211 0.0 184.886826 19.7235451 0.0 173.798004 21.4355679 0.0 164.638397 21.3651028 0.0 155.002991 20.4047642 0.0 143.093674 20.0845661 0.0 133.121719 20.5295238 0.0 123.654976 20.5985527 0.0 113.331764 20.2144051 0.0 102.763123 19.7773647 0.0 91.8859558 20.3055782 0.0 81.6639557 20.781208 0.0 71.6010895 21.6936493 0.0 61.1410446 20.9780846 0.0 50.9912758 20.7116051 0.0 39.4385605 20.8444653 0.0 30.4500618 21.636404 0.0 19.4659023 20.3329754 0.0 174.949081 31.8890991 0.0 164.094284 32.9555702 0.0 153.304138 31.7689362 0.0 142.232712 31.8432941 0.0 133.013123 31.5091686 0.0 123.382645 32.2980728 0.0 113.710983 31.194891 0.0 101.987038 33.074543 0.0 91.6054001 31.1843071 0.0 82.1526642 31.4806385 0.0 72.1034241 31.449789 0.0 61.6363297 31.6176682 0.0 50.9408226 32.1077766 0.0 40.4319382 31.1956272 0.0 30.769125 32.5968018 0.0 20.2765656 31.7507687 0.0 162.847076 42.3605614 0.0 154.542419 43.6636848 0.0 143.837173 43.5880508 0.0 133.127136 41.8935471 0.0 123.09713 42.1692314 0.0 112.805664 41.8382988 0.0 102.445908 42.7795067 0.0 92.7133789 41.1305618 0.0 81.8042755 41.4581795 0.0 72.6935501 41.7334976 0.0 61.5905342 42.6044312 0.0 50.3093109 42.0909882 0.0 40.432476 43.1786079 0.0 30.3120098 42.0492744 0.0 153.071564 53.986145 0.0 142.296341 53.3787041 0.0 132.884567 52.7738724 0.0 124.033142 52.9753075 0.0 112.634651 53.3928833 0.0 103.308151 53.8882332 0.0 92.2515335 52.7412415 0.0 81.9273605 53.2627831 0.0 71.9502106 53.3192558 0.0 61.5669937 53.684082 0.0 52.1496773 52.6314201 0.0 40.6575279 53.0350723 0.0 31.0018673 53.2883224 0.0 143.982681 64.2915421 0.0 133.716431 64.1149826 0.0 123.314117 63.4999352 0.0 111.295189 62.5572548 0.0 102.263695 62.8544617 0.0 93.3395615 63.7232704 0.0 81.7678223 63.5494118 0.0 71.4594193 63.564167 0.0 61.0819359 62.9845772 0.0 50.5973091 63.1289558 0.0 40.9075737 62.8133774 0.0 31.5408649 64.1248703 0.0 142.35849 74.1777878 0.0 133.323059 74.1262054 0.0 123.472412 74.032547 0.0 112.971725 73.8422089 0.0 102.589836 73.6742401 0.0 91.3621216 74.4574814 0.0 81.686615 74.3535767 0.0 71.8142166 73.0245895 0.0 60.8919296 73.9358749 0.0 50.4745369 74.389801 0.0 41.4997101 74.1309128 0.0 133.185944 85.5140457 0.0 123.281265 84.9116669 0.0 113.55455 84.5846405 0.0 102.655571 84.9591293 0.0 91.9317703 85.1256332 0.0 81.8111343 85.2588425 0.0 71.4496155 84.6525955 0.0 61.7442703 83.8019028 0.0 50.4253502 83.8518677 0.0 40.5527382 84.738945 0.0 122.737877 96.3163605 0.0 113.410477 94.3553391 0.0 102.07061 94.8305054 0.0 92.5213394 95.7608337 0.0 81.9006805 94.7695236 0.0 71.4306259 94.8939209 0.0 60.9525528 95.136055 0.0 50.3161049 94.9658127 0.0 41.8944626 95.3860626 0.0 112.364182 104.724854 0.0 102.110268 106.946442 0.0 92.1107407 105.665276 0.0 82.5678406 104.985718 0.0 71.1410828 105.214676 0.0 61.6508636 103.497536 0.0 50.1779366 105.235245 0.0 40.2633972 104.453964 0.0 102.153801 115.931221 0.0 92.1374435 115.836761 0.0 81.9098358 115.245705 0.0 71.1322556 116.033897 0.0 61.6921654 115.684143 0.0 51.5656509 115.849976 0.0 40.6081734 116.424736 0.0 92.5640106 126.442314 0.0 83.5027008 126.303146 0.0 71.8231812 126.424675 0.0 61.2657967 127.02887 0.0 50.9454727 127.239067 0.0 90.8881683 136.745132 0.0 81.7619705 137.710815 0.0 72.1663361 136.890335 0.0 61.5598145 137.107864 0.0 51.8734169 137.082748 0.0 41.4498558 136.788422 0.0 50.973877 147.335526 0.0 61.552002 147.72229 0.0 71.8811798 147.540421 0.0 82.1805649 148.157578 0.0 71.5676346 156.608368 0.0 61.929924 157.24054 0.0 51.9575615 158.219971 0.0 62.2763176 169.487732 0.0 51.0485077 168.389786 0.0 62.4928169 178.777878 0.0 51.666111 180.076599 0.0 50.8605652 191.085083 0.0 50.1209984 201.142075 0.0 202.10083 4.01710129 0.0 199.121552 8.03338814 0.0 193.155334 16.0602493 0.0 187.171555 24.0740337 0.0 184.170349 28.0739594 0.0 178.143921 36.0557137 0.0 172.078278 44.0077057 0.0 169.028107 47.9704056 0.0 162.887787 55.8648643 0.0 159.795578 59.7948532 0.0 153.561981 67.61586 0.0 147.25621 75.3787766 0.0 144.073853 79.2361221 0.0 137.647354 86.8993912 0.0 134.408371 90.7093201 0.0 127.901108 98.3041763 0.0 121.384476 105.890999 0.0 118.133728 109.690903 0.0 111.669731 117.322586 0.0 108.465553 121.161835 0.0 102.13607 128.90535 0.0 99.0203171 132.816681 0.0 92.9115143 140.735321 0.0 89.9286804 144.748917 0.0 84.1325836 152.899033 0.0 78.5989685 161.229446 0.0 73.3724594 169.755737 0.0 68.5120392 178.495468 0.0 64.184021 187.50946 0.0 60.6260452 196.852371 0.0 58.0455246 206.510788 0.0 56.1893311 216.337296 0.0 50.7669983 221.314896 0.0 46.1520004 221.357452 0.0 41.4908943 216.443573 0.0 41.3889084 206.530807 0.0 41.2575493 196.618393 0.0 41.0771446 186.706757 0.0 40.962368 181.75145 0.0 40.6711998 171.842468 0.0 40.2811394 161.936905 0.0 39.7719078 152.036774 0.0 39.1230507 142.144836 0.0 38.3139877 132.26474 0.0 37.3240738 122.401161 0.0 36.1327515 112.559906 0.0 35.455204 107.649818 0.0 33.9238548 97.8557739 0.0 32.1413841 88.1043549 0.0 30.0892944 78.4061279 0.0 28.9567165 73.5806656 0.0 26.4670925 63.9855232 0.0 23.6590767 54.4787674 0.0 22.1282501 49.7645111 0.0 18.7979622 40.4280281 0.0 15.0903473 31.2349644 0.0 13.0985708 26.6961899 0.0 8.89929295 17.716608 0.0 4.49930716 8.83341789 0.0 2.25583506 4.4135623 0.0 5.0019269 0.0 0.0 15.0057802 0.0 0.0 25.009634 0.0 0.0 35.0134888 0.0 0.0 45.0173416 0.0 0.0 55.0211945 0.0 0.0 65.0250473 0.0 0.0 75.0289001 0.0 0.0 85.032753 0.0 0.0 95.0366135 0.0 0.0 105.040466 0.0 0.0 110.042389 0.0 0.0 120.046242 0.0 0.0 130.050095 0.0 0.0 140.053955 0.0 0.0 150.0578 0.0 0.0 160.061661 0.0 0.0 170.065506 0.0 0.0 180.069366 0.0 0.0 190.073227 0.0 0.0 200.077072 0.0 0.0 93.233017 131.920685 0.0 88.2991638 140.64595 0.0 197.155441 3.9988091 0.0 47.8882904 217.084488 0.0 22.1638603 36.4570389 0.0 24.1994019 41.2188759 0.0 26.0180454 46.2864647 0.0 27.1151733 51.3507462 0.0 18.5103931 26.4281464 0.0 28.0500698 56.0641174 0.0 15.2232542 22.8485508 0.0 33.535553 75.0597 0.0 34.3680496 79.8135071 0.0 35.4863853 84.338562 0.0 36.6514816 89.1334991 0.0 14.003149 18.578722 0.0 38.5594711 99.0656433 0.0 40.2518311 110.307304 0.0 42.730545 122.217476 0.0 43.466568 144.715637 0.0 43.5635605 149.332123 0.0 43.9600563 154.079453 0.0 44.2801056 158.938705 0.0 44.6465073 163.730438 0.0 45.635582 168.810059 0.0 45.0568695 173.92157 0.0 7.31807423 4.4875741 0.0 45.5130615 178.619278 0.0 45.7679787 183.642456 0.0 45.7284813 188.806274 0.0 45.780407 193.867264 0.0 45.6991081 198.88147 0.0 45.5663147 213.283997 0.0 45.768425 203.913116 0.0 45.917778 208.995071 0.0 54.8510361 198.026581 0.0 56.6697044 192.432495 0.0 59.8512917 188.458618 0.0 54.4269485 203.623428 0.0 54.1740227 208.060425 0.0 65.6027374 174.117554 0.0 68.1937485 169.591431 0.0 71.0419464 165.244736 0.0 76.4435577 156.760605 0.0 79.2219696 152.458939 0.0 85.3648376 144.275391 0.0 97.2456284 127.890961 0.0 100.587097 124.15097 0.0 103.745148 120.396584 0.0 52.273056 217.682846 0.0 138.348816 78.0720444 0.0 148.946808 66.3996506 0.0 136.620865 82.7549438 0.0 110.013054 112.542984 0.0 152.077362 62.8102989 0.0 154.975998 58.8949318 0.0 158.018204 54.8551483 0.0 161.165115 50.8849754 0.0 164.336823 47.0510025 0.0 170.630112 39.5578728 0.0 173.70015 36.4913483 0.0 129.120544 89.2267227 0.0 116.495499 105.098831 0.0 178.911469 27.660778 0.0 187.914963 15.5541391 0.0 126.936668 93.6673126 0.0 119.523193 101.09491 0.0 191.089935 11.5769911 0.0 194.30217 7.89110136 0.0 187.486542 4.43575573 0.0 177.30336 4.66366339 0.0 167.198364 4.64365005 0.0 157.451859 4.46713114 0.0 147.085373 4.72162199 0.0 137.698975 4.10166836 0.0 132.870529 4.87445068 0.0 142.167679 4.34148502 0.0 152.392685 4.74401093 0.0 162.266815 4.52452993 0.0 172.252487 4.63673115 0.0 182.439728 4.65876579 0.0 192.348465 3.9986763 0.0 42.2884903 4.68911314 0.0 22.810812 4.49377823 0.0 52.8070374 5.0734129 0.0 62.9057083 4.38508558 0.0 17.7275085 4.72179317 0.0 27.641901 4.41503716 0.0 37.4890671 4.63264942 0.0 47.1675453 5.53765297 0.0 58.0332451 4.84761381 0.0 12.4617939 4.6195097 0.0
[...]
POINT_DATA 933
FIELD FieldData 1
T 1 933 double
30.0 30.0 30.0 30.0 30.0 30.0 30.0 30.0 30.0 30.0 30.0 30.0 30.0 30.0 30.0 30.0 30.0 30.0 30.0 30.0 30.0 30.0 30.0 30.0 5.0 5.0 5.0 5.0 5.0 5.0 5.0 5.0 5.0 5.0 5.0 5.0 5.0 5.0 5.0 5.0 5.0 5.0 5.0 5.0 4.939951409280483 4.858409152304464 4.749004517462213 4.649647424756648 4.573988344304614 4.522537149694304 4.475372096836208 4.4757239220758125 4.516987015510738 4.574065923739804 4.715201345317932 4.853365561332168 5.031206420113423 5.239851954266088 5.375343461914649 5.5562408994940915 5.702013223553117 5.8208189196798985 5.936222299736534 5.699362651727084 5.846683749124275 5.713507677178398 5.576055155741296 5.370525814189785 5.242574650283597 5.04297778524476 4.880838665265215 4.702772854417474 4.611269363057176 4.548076342813896 4.4986524879192595 4.496478751309139 4.528328013309806 4.579817583996106 4.6657349070359295 4.756487850452588 4.86428906674619 4.953746980362982 5.914649609959751 5.74698645323081 5.610349090087349 5.425755332272489 5.250065639606418 5.089487805832631 4.9361050532649635 4.798025228125604 4.652387460624197 4.5723905437538 4.538625436935272 4.5293788552751595 4.5553992719395175 4.606170855117801 4.689139310385028 4.784147672571769 4.890593034569036 5.861070353095118 5.678126798406267 5.473815080054402 5.326921041112135 5.156566060793517 5.002698838958444 4.872139451191388 4.753538567511544 4.643845370187293 4.599128502545251 4.583722788393216 4.607499111231188 4.665157690380557 4.724813990657362 4.828372811543333 4.949594456847162 5.774078781379873 5.612625588670039 5.437872459384052 5.269690513593899 5.118812420777221 4.9697287001639605 4.811979912195252 4.747413582094942 4.695229869126179 4.674583095855202 4.679505875527884 4.7178296664861925 4.789648937666931 4.887323327011603 5.73415114117426 5.543130463131513 5.3856180694137255 5.235840543104859 5.114686022709268 4.957786550717163 4.8386172554299485 4.783062675768499 4.753977922546344 4.757679741277252 4.773373576679522 4.833630336626357 4.907635973604899 5.723281098054945 5.520284230093848 5.3482344578032555 5.2123879433488405 5.058748699852245 4.959149404402049 4.885597058086421 4.8426086340243515 4.826819165675138 4.839178077310288 4.882779619722566 4.952414796477065 5.880098119428967 5.690933053053645 5.490539900107094 5.3336514756326485 5.193790180183538 5.08586998894848 4.983225512967564 4.926389351720619 4.9113006029957615 4.912990186654786 4.928306940749728 5.859716377853752 5.652432125437548 5.5037309590534145 5.334445781232604 5.206293711725628 5.11801009095066 5.04651013523367 4.986984687140845 4.968911953785705 4.978921585780196 5.861838133277855 5.643768936515197 5.471019215789003 5.3617655772347605 5.23756936785676 5.146797407889899 5.081038005027229 5.033743801466577 5.007023035225467 5.799390309368874 5.627909528073997 5.508544243009951 5.347182151843672 5.24929297619742 5.141287650977108 5.074918394213836 5.019655720850698 5.781017966490802 5.589329356086574 5.488146819568143 5.370945681791128 5.229753003874172 5.111590378476482 5.036483655575075 5.774212584132929 5.588686746670101 5.458595458977508 5.32171023524055 5.156930415990505 5.90147861398485 5.685601384077761 5.549938786977541 5.395131563868355 5.222242763039117 5.072979165104217 5.29494919321331 5.45872432465901 5.648766449607088 5.861264530231625 5.754315232758605 5.526119358190207 5.370460468260075 5.659571255554912 5.399771612837384 5.818925062555379 5.444282814018757 5.480473884762421 5.515818922096369 30.0 30.0 30.0 30.0 30.0 30.0 30.0 30.0 30.0 30.0 30.0 30.0 30.0 30.0 30.0 30.0 30.0 30.0 30.0 30.0 30.0 30.0 30.0 30.0 30.0 30.0 30.0 30.0 30.0 30.0 30.0 30.0 30.0 30.0 5.0 5.0 5.0 5.0 5.0 5.0 5.0 5.0 5.0 5.0 5.0 5.0 5.0 5.0 5.0 5.0 5.0 5.0 5.0 5.0 5.0 5.0 5.0 5.0 5.0 5.0 4.976538106627002 4.8999564941640035 4.805847871123759 4.697226596535007 4.604339164937433 4.547193089025748 4.496359069626323 4.469827507069628 4.490095579838058 4.5468336690410025 4.626276608092164 4.663155525243529 4.7854874227846205 4.948641911899011 5.146206997033144 5.306674337157457 5.467228683272134 5.632610762826351 5.765224314173867 5.8757554620356425 5.980227926969057 5.874703968442454 5.905105356701923 5.964249634378682 5.678100133846377 4.945796469419816 4.937635519601179 4.932362615753076 4.942951829182965 4.941313541670922 4.952475085252381 4.946801642850422 4.972949511141987 4.983051489595705 4.988358475698985 4.992985120450159 4.93698624704569 5.008934391938471 5.025140672835346 5.049371685122472 5.098080744893411 5.101127403484981 5.122055639397038 5.126345857135344 5.123949820219072 5.148737222402957 5.136811995596997 4.964284404868118 5.215002058698481 5.236615224774631 5.232343589959213 5.2396103622175225 5.244038231092207 5.39195641961383 5.279426399004372 5.3556438259145205 5.771753451265727 5.737011418596904 5.792695560816026 5.760991958135268 5.783959823247026 5.845415292971864 5.827913075380434 5.857269840597981 5.872751140911891 5.867415231178175 5.883503842839262 5.893308326955815 5.900239515151565 5.896426896222746 5.8665670043609275 5.840067322338772 5.869834683755544 5.882411160234207 5.868391404392267 5.886321166366378 5.868791152664627 5.860189763973112 5.864219920627129 5.878047159005962 5.87667627791623 5.8937358866913145 5.877159908006998 5.895448617579176 5.905161623911109 5.918821718530094 5.8903315892241785 5.889969252541878 5.929693898648168 5.9542978438010525 5.847207123088157 5.7325943821800385 5.59139482816844 5.41048872331482 5.273746138573111 5.090949737588697 5.000405876101438 5.206110308966998 5.33738745423526 5.5206885204902605 5.672252366713509 5.801514333997258 5.90972516491437 4.63449424092823 4.837324382533824 4.561325909049432 4.512983614236248 4.88053280420867 4.773725847324099 4.674232432106987 4.5880478055569816 4.5352492950237675 4.922284747811667 4.726894229882249 4.909611854704192 4.7559861580235605 4.473990221690354 4.482370498175712 4.533948522952558 4.602191815470213 4.4854740188158075 4.472119021680791 4.503124538804096 4.564405050390404 4.647977889896278 4.693549912968968 4.828641143989378 5.073451694801409 4.910799207167383 5.76900716685246 5.755258559257809 4.887797738261804 5.539047854986294 5.767649118792706 5.777072225331717 5.748428431530148 5.775104980770784 5.05192634295026 4.9636406971788025 4.9443498912130925 5.109388015154291 5.446384877337493 5.418475847112261 5.305583654361756 5.742172366600075 5.270533671146925 5.744983371359625 5.244429925720934 5.795655043019149 5.883269374384974 5.861120379809033 5.886566938888287 4.481925547870322 4.500305568074258 4.70765867955101 4.905252774549734 4.9724756570029305 4.804265852015758 4.971488938304748 4.954940891486418 5.791942778913593 5.7894967249877585 4.893093145107321 5.698399292138226 4.895417821210054 5.7526985794097865 5.748166314393428 5.466861905785844 4.521316260271222 4.827700478027525 4.976131081858925 4.5030219902399375 4.893435444792184 5.213377642908149 5.75066497334967 5.155640503375356 5.451426560294441 5.755846148165367 5.612652693036511 5.582174233688834 5.751028674744716 4.869412682931731 5.639696291276265 5.697894433496149 5.734037436147978 5.727459915041817 5.761717184502714 5.044948697780663 5.291152194852342 5.762023460477059 5.253288068366583 5.726456348685088 5.874123916266651 5.0766538701602375 4.901422775081946 4.483542082178078 4.490400369816404 4.900629262322523 4.7280114217460865 5.8802430780674495 5.641150961902964 5.752587350504093 5.617206507279948 5.6480201987664245 5.670966911189045 4.5071315401255605 5.167295799810003 4.512608327679359 5.138524958807839 5.641722290006962 5.633456453741404 5.631121739423329 5.519566390582185 4.51766779491147 4.915396280504754 5.065439812749264 4.5133963941801785 5.1985946307465545 5.461265626873531 5.565731813162434 5.6614262138732085 5.759812152524066 4.871141917485235 5.675257248986846 5.634681804564478 5.647465781736635 5.7767095729408915 5.626245499805352 5.023623861213894 4.780675526383006 5.566868762794226 5.73738902405642 4.848492341615425 5.551897538347028 5.05051490099498 5.582047535533842 5.545223987101258 5.658752442254179 5.627504823733008 4.543499578545375 4.848552753305255 5.359108127347387 4.999571229016224 4.520247647458624 5.154478241168285 4.5270145806895155 5.000332315096911 4.908601081746603 5.562725718063576 5.703249935090104 5.602829084979429 5.596431406633038 4.809095229560527 4.7390810071341045 5.5507392290190465 5.640329466441038 5.642731628868024 5.571346504987346 5.444202766173395 4.8406068150879955 4.835922474490331 5.640592565296915 4.840094415107784 5.793363972257794 5.152384712497383 5.595670930893941 4.8439415519794835 5.763894399847374 4.830394164159826 5.6341924137813075 4.881917128148 5.638301908842356 5.053633297653064 4.5319543924709915 5.2142670733568135 5.544549126565914 5.643354419436124 5.6598425594718815 5.557644030607003 5.540953847493496 4.825136671940895 4.784892352088284 4.741198586295672 5.530561745365573 5.08065242885808 5.714348286803784 5.070815217489219 5.024247949441517 4.8777136375024 4.564999802002729 5.549577929971012 5.024341760939362 5.535854774198411 5.54851182690758 5.37532565742888 4.54682054958056 4.776807819207772 4.690167071375705 5.467076712950999 4.8073795744752035 4.798673355013633 5.565842300460393 5.078420136865245 5.696917761279824 5.64169733897297 4.809889899774486 5.596530824114418 4.547855328061152 5.28963820061066 5.505442501876977 5.0042763648511945 5.769606916677568 4.524437835720862 5.461504259621107 5.543730808578736 4.7246309767607535 4.766063737895971 5.622271433300774 4.967819935966246 4.565524584200079 5.566084864253978 5.293143058770531 4.811171036519778 4.798234085166274 5.576413868001907 4.550633646856021 5.309922650494549 5.446379017622819 5.519546471337244 5.394775083107903 5.118207877140753 5.522558955574496 4.841602389094457 5.100926802060148 4.730091742071235 5.536563559487665 5.829363546463859 4.7567142226735255 5.447520990333249 5.220065643408401 5.492233901030314 5.464972142537914 5.068029722710662 4.572448965806369 4.595160308152092 4.840147935513553 4.924897161729488 5.673457206673643 5.4517455062479625 4.84951853150592 5.810340899792791 5.911872593042275 5.419621835409213 5.363777413813779 5.48083160043468 5.422644325895106 5.4431642251775525 5.479721651866486 5.510909301441043 4.992638850157863 4.5404810830352735 4.597951287390716 4.576436195111864 5.439058283814526 5.053689863053386 5.1854500537643595 5.39529518635022 5.325982623127191 4.740207227889029 4.778871232409876 5.381651464865538 4.616862227793656 4.773537644373444 4.920900905886758 4.906243781689191 5.415311233465061 4.876616176880261 4.761457922591776 5.056355516899518 5.3577088565212145 5.603339473202823 5.731129402532232 5.2390362711030924 5.10075199493514 4.93964998221121 5.55416446331127 5.4496976980906435 4.727112007834227 4.605304805363123 4.578841696403084 4.659514133994824 5.367750179130904 4.803245658463884 5.322149097997653 4.903360344428364 4.570928735065407 5.345072002155534 4.609317551846942 5.420700406270779 4.7595285976853114 4.7338015138067995 4.668585748775541 4.7130194176278 5.428693419513696 4.57365426188211 5.424034984449412 4.710284056901347 4.801690929284376 5.023166235469296 5.3900518741655254 5.656616449881241 5.182321316030986 5.319543584931358 5.107909021623266 5.09357018941665 5.387576072573353 4.656032112604145 4.611475115612067 5.292480133911522 5.2975825929849325 4.982897592609836 5.219496241238739 4.77132099837065 4.823238812842309 5.336469504993611 4.649625952317935 4.94608436697999 5.3692615316354075 4.804615256225569 4.712428204839421 5.239390885752479 4.698138463056242 5.2230083556686715 4.682817651893833 4.999514668618816 4.962858610314715 4.553865518256489 5.2727343310125 4.93029736921287 5.267896974581811 4.877305644789934 4.6044410847692685 4.615849391850776 5.463167595754707 5.334402211271504 5.327630062007321 5.435368953780695 4.649350396557239 4.794371449082781 4.853709570566829 5.4128222347598625 5.131949194487913 5.02551069123196 5.24464105867499 4.906271260037635 5.042691763803727 5.527582629563641 5.781649272478668 5.34776828683242 5.104178080364162 5.189490010377816 5.308954714200212 5.006124017216043 5.271909803812861 5.047115398562462 5.334983061498115 5.174287719737074 4.953803685696534 4.746409329393585 4.702157101823099 4.699933857543784 5.26081101174004 5.250952469055551 4.689569238394879 5.201591473597685 4.633795756280682 5.279528003086236 5.5364447480184955 4.646328186552033 4.624688228322766 4.850898930612082 5.7770879243611075 5.327805808277539 5.00041887165736 5.84902495971945 4.6731691529573025 4.889958554896234 4.558381460711008 5.217010356212247 4.989252494093941 5.262004472382745 4.619972636424058 4.9174151690453884 4.884984417580465 4.873550840806447 4.6477239395991425 5.277572836681336 5.105775594624603 5.398192993946182 5.1554379843307885 5.218736197938803 4.636415155161088 4.756989820176035 5.173304236532513 5.305323821553074 5.32999446877895 5.448440960783892 5.19039059480541 4.583399533241985 5.27043137300427 5.170547558116821 5.2816986660919065 4.60802544684058 4.652321628529775 5.25651053076967 4.86241402202257 4.637820265603045 4.793727396044361 5.194773694078405 5.153357617919941 5.132017497034551 4.621654778156474 5.133330592949241 4.942287500039339 4.836858583443165 5.20574472191446 5.082928281946206 5.126104984258576 5.393955534364119 5.387850506823095 5.297518651559301 4.70099929078103 5.143034242050134 5.530960451784789 4.569135938105053 5.190580441086795 5.208280730166163 4.651177996552571 4.869762456703016 4.65431382861907 4.622373071895703 5.156673072190584 5.218294944809378 5.116340686578071 5.291863029288912 5.143331331895497 4.9461480099519655 4.7025218649559095 4.885720761703106 4.687010369288327 4.5859829825531895 4.7387356499585875 5.113553907171321 5.14745014259794 4.878571489392982 4.794325917180253 5.179069442496937 5.0329821716570216 5.472033977932585 5.27647909377168 4.544378861042459 5.217582186085778 4.633563917770029 5.134686257050579 5.174685124113989 4.968849290328966 4.945967617605606 5.392040669813217 4.740718202555113 4.711516777341047 4.689299201531472 5.065511036540953 4.987940273214796 5.458029102839769 5.526071977814711 4.973536235264135 4.859489585012165 4.6556779376304815 4.588194745725966 4.7791121944302235 5.095278844105972 5.216055892934687 5.282382258595066 4.913442195542499 4.707093426181675 4.740587474963853 5.072037698817866 4.7970418541568955 5.0780565784628635 4.94285118075113 5.088829926296876 4.88910385837754 5.3970222155529815 5.521717309783542 5.024624289578899 5.063104777021582 5.190364685787091 4.956955659780633 4.763008005317088 4.806739820595007 4.975020817764983 5.324000978690318 5.517920090917042 4.79031106737308 4.776360152379091 5.490788344745854 4.707968647990283 4.859708653952499 5.035267734176943 5.440118563314092 4.718520528793868 4.943661261675641 5.390459333126307 4.980603935557232 5.444131196646629 4.829905063024756 5.0519728319179205 4.9197420585503995 4.9758206844987205 5.581494324150958 5.03850108586927 4.733149732062974 4.827925649408386 4.851938975422954 4.908041317466298 5.044672639149845 5.13249242184325 4.77798737260642 5.3184643461357055 5.003364588745393 4.943453590124251 5.044078831987452 4.919768113554562 4.892084458927849 5.00177490977156 4.941080468722728 4.888113842277068 4.988241703789651 4.8229747468709885 5.054097714313542 5.792592928350802 5.639703047444875 5.468987519481234 5.335986485759515 5.889939029546187 4.957455435493383 4.747532620943116 5.348776735881137 4.676939430454519 4.740616928478307
